/*--------------------------------*- C++ -*----------------------------------*\
|                                                                             |
|                Generated by the CfdOF workbench for FreeCAD                 |
|                      https://github.com/jaheyns/CfdOF                       |
|                                                                             |
\*---------------------------------------------------------------------------*/
FoamFile
{
    version     2.0;
    format      ascii;
    class       volScalarField;
    object      T;
}
// * * * * * * * * * * * * * * * * * * * * * * * * * * * * * * * * * * * * * //

dimensions      [0 0 0 1 0 0 0];

internalField   uniform 800.0;

boundaryField
{

    endCaps
    {
        type        zeroGradient;
        value       $internalField;
    }

    circularWall
    {
        type            nonuniformFixedValue;
        valueTable
        {
            type        nonuniformTable;
            axis        x;  // Specify the axis along which the profile varies (x, y, or z)
            file        "axial_temp_profile.csv";  // File containing the temperature profile data
        }
    }

    defaultFaces
    {
        type        zeroGradient;
        value       $internalField;
    }

}

// ************************************************************************* //
